<VTKFile type="UnstructuredGrid" byte_order="BigEndian">
<UnstructuredGrid><Piece NumberOfPoints="246" NumberOfCells="200">
<Points>
 <DataArray type="Float32" NumberOfComponents="3" format="ascii">
 -1.444847941398620605e+00 0.000000000000000000e+00 0.000000000000000000e+00
 -1.433726787567138672e+00 0.000000000000000000e+00 0.000000000000000000e+00
 -1.422605514526367188e+00 0.000000000000000000e+00 0.000000000000000000e+00
 -1.411484360694885254e+00 0.000000000000000000e+00 0.000000000000000000e+00
 -1.400363087654113770e+00 0.000000000000000000e+00 0.000000000000000000e+00
 -1.389241933822631836e+00 0.000000000000000000e+00 0.000000000000000000e+00
 -1.443692445755004883e+00 7.104081660509109497e-02 0.000000000000000000e+00
 -1.432580947875976562e+00 7.024628669023513794e-02 0.000000000000000000e+00
 -1.421469330787658691e+00 6.945176422595977783e-02 0.000000000000000000e+00
 -1.410357713699340820e+00 6.865724176168441772e-02 0.000000000000000000e+00
 -1.399246096611022949e+00 6.786271184682846069e-02 0.000000000000000000e+00
 -1.388134598731994629e+00 6.706818938255310059e-02 0.000000000000000000e+00
 -1.440351128578186035e+00 1.419911980628967285e-01 0.000000000000000000e+00
 -1.429265260696411133e+00 1.404028981924057007e-01 0.000000000000000000e+00
 -1.418179392814636230e+00 1.388145983219146729e-01 0.000000000000000000e+00
 -1.407093644142150879e+00 1.372262835502624512e-01 0.000000000000000000e+00
 -1.396007776260375977e+00 1.356379836797714233e-01 0.000000000000000000e+00
 -1.384921908378601074e+00 1.340496838092803955e-01 0.000000000000000000e+00
 -1.434772491455078125e+00 2.127575278282165527e-01 0.000000000000000000e+00
 -1.423729896545410156e+00 2.103770226240158081e-01 0.000000000000000000e+00
 -1.412687301635742188e+00 2.079965174198150635e-01 0.000000000000000000e+00
 -1.401644706726074219e+00 2.056160271167755127e-01 0.000000000000000000e+00
 -1.390602111816406250e+00 2.032355219125747681e-01 0.000000000000000000e+00
 -1.379559516906738281e+00 2.008550167083740234e-01 0.000000000000000000e+00
 -1.426999926567077637e+00 2.832563221454620361e-01 0.000000000000000000e+00
 -1.416017055511474609e+00 2.800858020782470703e-01 0.000000000000000000e+00
 -1.405034303665161133e+00 2.769152522087097168e-01 0.000000000000000000e+00
 -1.394051551818847656e+00 2.737447023391723633e-01 0.000000000000000000e+00
 -1.383068680763244629e+00 2.705741524696350098e-01 0.000000000000000000e+00
 -1.372085928916931152e+00 2.674036026000976562e-01 0.000000000000000000e+00
 -1.417077779769897461e+00 3.534139394760131836e-01 0.000000000000000000e+00
 -1.406170487403869629e+00 3.494558632373809814e-01 0.000000000000000000e+00
 -1.395263195037841797e+00 3.454977571964263916e-01 0.000000000000000000e+00
 -1.384355902671813965e+00 3.415396809577941895e-01 0.000000000000000000e+00
 -1.373448491096496582e+00 3.375815749168395996e-01 0.000000000000000000e+00
 -1.362541198730468750e+00 3.336234986782073975e-01 0.000000000000000000e+00
 -1.405044436454772949e+00 4.231628179550170898e-01 0.000000000000000000e+00
 -1.394227504730224609e+00 4.184198677539825439e-01 0.000000000000000000e+00
 -1.383410692214965820e+00 4.136769473552703857e-01 0.000000000000000000e+00
 -1.372593760490417480e+00 4.089339971542358398e-01 0.000000000000000000e+00
 -1.361776947975158691e+00 4.041910469532012939e-01 0.000000000000000000e+00
 -1.350960135459899902e+00 3.994481265544891357e-01 0.000000000000000000e+00
 -1.390961289405822754e+00 4.924538433551788330e-01 0.000000000000000000e+00
 -1.380248546600341797e+00 4.869285225868225098e-01 0.000000000000000000e+00
 -1.369535923004150391e+00 4.814031720161437988e-01 0.000000000000000000e+00
 -1.358823299407958984e+00 4.758778512477874756e-01 0.000000000000000000e+00
 -1.348110675811767578e+00 4.703525006771087646e-01 0.000000000000000000e+00
 -1.337398052215576172e+00 4.648271799087524414e-01 0.000000000000000000e+00
 -1.374873042106628418e+00 5.612412095069885254e-01 0.000000000000000000e+00
 -1.364277601242065430e+00 5.549356341361999512e-01 0.000000000000000000e+00
 -1.353682160377502441e+00 5.486299991607666016e-01 0.000000000000000000e+00
 -1.343086838722229004e+00 5.423244237899780273e-01 0.000000000000000000e+00
 -1.332491397857666016e+00 5.360187888145446777e-01 0.000000000000000000e+00
 -1.321895956993103027e+00 5.297132134437561035e-01 0.000000000000000000e+00
 -1.356819391250610352e+00 6.294835805892944336e-01 0.000000000000000000e+00
 -1.346353650093078613e+00 6.223993897438049316e-01 0.000000000000000000e+00
 -1.335887908935546875e+00 6.153152585029602051e-01 0.000000000000000000e+00
 -1.325422286987304688e+00 6.082310676574707031e-01 0.000000000000000000e+00
 -1.314956545829772949e+00 6.011468768119812012e-01 0.000000000000000000e+00
 -1.304490804672241211e+00 5.940627455711364746e-01 0.000000000000000000e+00
 -1.336900115013122559e+00 6.971913576126098633e-01 0.000000000000000000e+00
 -1.326574683189392090e+00 6.893286108970642090e-01 0.000000000000000000e+00
 -1.316249132156372070e+00 6.814659237861633301e-01 0.000000000000000000e+00
 -1.305923581123352051e+00 6.736032366752624512e-01 0.000000000000000000e+00
 -1.295598149299621582e+00 6.657405495643615723e-01 0.000000000000000000e+00
 -1.285272598266601562e+00 6.578778624534606934e-01 0.000000000000000000e+00
 -1.315156102180480957e+00 7.643517255783081055e-01 0.000000000000000000e+00
 -1.304980754852294922e+00 7.557094693183898926e-01 0.000000000000000000e+00
 -1.294805407524108887e+00 7.470671534538269043e-01 0.000000000000000000e+00
 -1.284630179405212402e+00 7.384248375892639160e-01 0.000000000000000000e+00
 -1.274454832077026367e+00 7.297825217247009277e-01 0.000000000000000000e+00
 -1.264279484748840332e+00 7.211402654647827148e-01 0.000000000000000000e+00
 -1.291634082794189453e+00 8.309655785560607910e-01 0.000000000000000000e+00
 -1.281618475914001465e+00 8.215411901473999023e-01 0.000000000000000000e+00
 -1.271602749824523926e+00 8.121168017387390137e-01 0.000000000000000000e+00
 -1.261587023735046387e+00 8.026924133300781250e-01 0.000000000000000000e+00
 -1.251571416854858398e+00 7.932680249214172363e-01 0.000000000000000000e+00
 -1.241555690765380859e+00 7.838436961174011230e-01 0.000000000000000000e+00
 -1.266377687454223633e+00 8.970403075218200684e-01 0.000000000000000000e+00
 -1.256530642509460449e+00 8.868297934532165527e-01 0.000000000000000000e+00
 -1.246683597564697266e+00 8.766193389892578125e-01 0.000000000000000000e+00
 -1.236836552619934082e+00 8.664088845252990723e-01 0.000000000000000000e+00
 -1.226989507675170898e+00 8.561983704566955566e-01 0.000000000000000000e+00
 -1.217142462730407715e+00 8.459879159927368164e-01 0.000000000000000000e+00
 -1.239433407783508301e+00 9.625970721244812012e-01 0.000000000000000000e+00
 -1.229763627052307129e+00 9.515946507453918457e-01 0.000000000000000000e+00
 -1.220093727111816406e+00 9.405921697616577148e-01 0.000000000000000000e+00
 -1.210423946380615234e+00 9.295896887779235840e-01 0.000000000000000000e+00
 -1.200754165649414062e+00 9.185872673988342285e-01 0.000000000000000000e+00
 -1.191084265708923340e+00 9.075847864151000977e-01 0.000000000000000000e+00
 -1.210841655731201172e+00 1.027661681175231934e+00 0.000000000000000000e+00
 -1.201357364654541016e+00 1.015859484672546387e+00 0.000000000000000000e+00
 -1.191873073577880859e+00 1.004057168960571289e+00 0.000000000000000000e+00
 -1.182388782501220703e+00 9.922548532485961914e-01 0.000000000000000000e+00
 -1.172904372215270996e+00 9.804525971412658691e-01 0.000000000000000000e+00
 -1.163420081138610840e+00 9.686502814292907715e-01 0.000000000000000000e+00
 -1.180636763572692871e+00 1.092263460159301758e+00 0.000000000000000000e+00
 -1.171346306800842285e+00 1.079651594161987305e+00 0.000000000000000000e+00
 -1.162055850028991699e+00 1.067039608955383301e+00 0.000000000000000000e+00
 -1.152765274047851562e+00 1.054427623748779297e+00 0.000000000000000000e+00
 -1.143474817276000977e+00 1.041815638542175293e+00 0.000000000000000000e+00
 -1.134184360504150391e+00 1.029203772544860840e+00 0.000000000000000000e+00
 -1.148849368095397949e+00 1.156435966491699219e+00 0.000000000000000000e+00
 -1.139761090278625488e+00 1.143002390861511230e+00 0.000000000000000000e+00
 -1.130672693252563477e+00 1.129568815231323242e+00 0.000000000000000000e+00
 -1.121584415435791016e+00 1.116135239601135254e+00 0.000000000000000000e+00
 -1.112496137619018555e+00 1.102701663970947266e+00 0.000000000000000000e+00
 -1.103407740592956543e+00 1.089268207550048828e+00 0.000000000000000000e+00
 -1.115504741668701172e+00 1.220214366912841797e+00 0.000000000000000000e+00
 -1.106627225875854492e+00 1.205945253372192383e+00 0.000000000000000000e+00
 -1.097749829292297363e+00 1.191676139831542969e+00 0.000000000000000000e+00
 -1.088872313499450684e+00 1.177406907081604004e+00 0.000000000000000000e+00
 -1.079994797706604004e+00 1.163137793540954590e+00 0.000000000000000000e+00
 -1.071117401123046875e+00 1.148868680000305176e+00 0.000000000000000000e+00
 -1.080623626708984375e+00 1.283635497093200684e+00 0.000000000000000000e+00
 -1.071966052055358887e+00 1.268514633178710938e+00 0.000000000000000000e+00
 -1.063308477401733398e+00 1.253393769264221191e+00 0.000000000000000000e+00
 -1.054651021957397461e+00 1.238272905349731445e+00 0.000000000000000000e+00
 -1.045993447303771973e+00 1.223152041435241699e+00 0.000000000000000000e+00
 -1.037335991859436035e+00 1.208031177520751953e+00 0.000000000000000000e+00
 -1.044223189353942871e+00 1.346737504005432129e+00 0.000000000000000000e+00
 -1.035795331001281738e+00 1.330746769905090332e+00 0.000000000000000000e+00
 -1.027367353439331055e+00 1.314755916595458984e+00 0.000000000000000000e+00
 -1.018939495086669922e+00 1.298765182495117188e+00 0.000000000000000000e+00
 -1.010511517524719238e+00 1.282774448394775391e+00 0.000000000000000000e+00
 -1.002083659172058105e+00 1.266783595085144043e+00 0.000000000000000000e+00
 -1.006316781044006348e+00 1.409558415412902832e+00 0.000000000000000000e+00
[...]
<CellData>
 <DataArray Name="pos.x" type="Float32" NumberOfComponents="1" format="ascii">
 -1.438722403451019316e+00
 -1.427606129520265332e+00
 -1.416489858313450423e+00
 -1.405373589925724476e+00
 -1.394257324456662062e+00
 -1.436482548305186180e+00
 -1.425383949732421218e+00
 -1.414285353848503624e+00
 -1.403186760747332729e+00
 -1.392088170527016500e+00
 -1.432039250878505587e+00
 -1.420975142041355666e+00
 -1.409911035827565051e+00
 -1.398846932328390968e+00
 -1.387782831639384540e+00
 -1.425388541502777606e+00
 -1.414375956911584131e+00
 -1.403363374844369682e+00
 -1.392350795388589635e+00
 -1.381338218635848714e+00
 -1.416573855850975283e+00
 -1.405628910422370703e+00
 -1.394683967384709788e+00
 -1.383739026820398621e+00
 -1.372794088815880720e+00
 -1.405636186325255332e+00
 -1.394774197253590309e+00
 -1.383912210408779542e+00
 -1.373050225867358032e+00
 -1.362188243709426594e+00
 -1.392624865373539356e+00
 -1.381860199343869278e+00
 -1.371095535343622940e+00
 -1.360330873442134880e+00
 -1.349566213711866913e+00
 -1.377592545171205884e+00
 -1.366938594481198921e+00
 -1.356284645595743799e+00
 -1.345630698576169904e+00
 -1.334976753486289525e+00
 -1.360581087389568289e+00
 -1.350050601221834956e+00
 -1.339520116611674361e+00
 -1.328989633611444177e+00
 -1.318459152276039159e+00
 -1.341659552820444468e+00
 -1.331264002504924937e+00
 -1.320868453459729031e+00
 -1.310472905727132931e+00
 -1.300077359351506257e+00
 -1.320897698642155227e+00
 -1.310647323242505768e+00
 -1.300396948806985753e+00
 -1.290146575367781878e+00
 -1.279896202958101359e+00
 -1.298339058137235824e+00
 -1.288243581092586520e+00
 -1.278148104688518139e+00
 -1.268052628946102489e+00
 -1.257957153887335755e+00
 -1.274028624787709507e+00
 -1.264097272655775761e+00
 -1.254165920827539527e+00
 -1.244234569312958838e+00
 -1.234303218122219992e+00
 -1.248011210851080133e+00
 -1.238252771486326953e+00
 -1.228494332076072171e+00
 -1.218735892618778127e+00
 -1.208977453112920264e+00
 -1.220330105795157882e+00
 -1.210753020695660931e+00
 -1.201175935194366273e+00
 -1.191598849278362460e+00
 -1.182021762934254649e+00
 -1.191022679978610332e+00
 -1.181635246095669833e+00
 -1.172247811452965749e+00
 -1.162860376026355391e+00
 -1.153472939790598950e+00
 -1.160121431519531621e+00
 -1.150931975182444278e+00
 -1.141742517730664819e+00
 -1.132553059128892148e+00
 -1.123363599340477581e+00
 -1.127654383383551506e+00
 -1.118671423097136630e+00
 -1.109688461349058297e+00
 -1.100705498093528245e+00
 -1.091722533282850849e+00
 -1.093644796338600456e+00
 -1.084877211353228121e+00
 -1.076109624572641366e+00
 -1.067342035940953782e+00
 -1.058574445399960595e+00
 -1.058111935218261745e+00
 -1.049569113086992855e+00
 -1.041026288844501657e+00
 -1.032483462425505483e+00
 -1.023940633761880159e+00
 -1.021071356338876912e+00
 -1.012763331913983267e+00
 -1.004455305084244632e+00
 -9.961472757756487661e-01
 -9.878392439111206569e-01
 -9.825348068993051687e-01
 -9.744724021119814950e-01
 -9.664099946530094742e-01
 -9.583475844405445754e-01
 -9.502851713893223362e-01
 -9.425109141506908816e-01
 -9.347058585927110475e-01
 -9.269008001267594610e-01
 -9.190957386640560278e-01
 -9.112906741121957754e-01
 -9.010050810668646104e-01
 -8.934701338108841373e-01
 -8.859351834456947739e-01
 -8.784002298766734329e-01
 -8.708652730053085822e-01
 -8.580198677860240153e-01
 -8.507689272278107229e-01
 -8.435179833971527819e-01
 -8.362670361946448194e-01
 -8.290160855168035026e-01
 -8.135555376442998865e-01
 -8.066037361471668499e-01
 -7.996519312558336701e-01
 -7.927001228673551392e-01
 -7.857483108745129119e-01
 -7.676099109203614601e-01
 -7.609737110136762794e-01
 -7.543375076355721687e-01
 -7.477013006807743389e-01
 -7.410650900397111052e-01
 -7.201808002070574366e-01
 -7.138780261239473512e-01
 -7.075752485347502896e-01
 -7.012724673331132141e-01
 -6.949696824082961522e-01
 -6.712667526926850980e-01
 -6.653166027082419998e-01
 -6.593664492263632271e-01
 -6.534162921407858926e-01
 -6.474661313408658359e-01
 -6.208635242173278224e-01
 -6.152866708504741711e-01
 -6.097098140432328783e-01
 -6.041329536908401909e-01
 -5.985560896842077039e-01
 -5.689637107373912706e-01
 -5.637824062459505514e-01
 -5.586010984210477703e-01
 -5.534197871608637076e-01
 -5.482384723593708431e-01
 -5.155590812496555486e-01
 -5.107972023479279144e-01
 -5.060353202694892749e-01
 -5.012734349169276626e-01
 -4.965115461887708026e-01
 -4.606420122738747458e-01
 -4.563250658845887098e-01
 -4.520081165226889630e-01
 -4.476911640965611783e-01
 -4.433742085108023923e-01
 -4.042042971067543733e-01
 -4.003594564974935488e-01
 -3.965146131692847686e-01
 -3.926697670378807570e-01
 -3.888249180155088913e-01
 -3.462378798801549196e-01
 -3.428939954062831807e-01
 -3.395501085114085993e-01
 -3.362062191200150263e-01
 -3.328623271534597028e-01
 -2.867331163442182196e-01
 -2.839207764768392761e-01
 -2.811084345374454951e-01
 -2.782960904609715902e-01
 -2.754837441795698338e-01
 -2.256814226399750101e-01
 -2.234329289850047195e-01
 -2.211844336439374170e-01
 -2.189359365633888888e-01
 -2.166874376877414299e-01
 -1.630720040745823607e-01
 -1.614214595009029474e-01
 -1.597709136817835607e-01
 -1.581203665774992828e-01
 -1.564698181465650206e-01
 -9.889532698530052734e-02
 -9.787857009908414174e-02
 -9.686181243257531437e-02
 -9.584505396064238458e-02
 -9.482829465707964811e-02
 -3.314449633030074061e-02
 -3.279913711165177020e-02
 -3.245377763494863843e-02
 -3.210841789177800581e-02
 -3.176305787337667386e-02
 </DataArray>
 <DataArray Name="pos.y" type="Float32" NumberOfComponents="1" format="ascii">
 3.532390964772279957e-02
 3.492665141342712887e-02
 3.452939327650219464e-02
 3.413213524029119067e-02
 3.373487730840273036e-02
 1.059275839758074406e-01
 1.047361827904365467e-01
 1.035447818936920811e-01
 1.023533812956911315e-01
 1.011619810069200598e-01
 1.763941109084356806e-01
 1.744097284818430793e-01
 1.724253465257434836e-01
 1.704409650565240353e-01
 1.684565840913134493e-01
 2.466359189895697412e-01
 2.438604217790978357e-01
 2.410849252047255475e-01
 2.383094292885175880e-01
 2.355339340535696213e-01
 3.165746174944650826e-01
 3.130103330597162059e-01
 3.094460494035813913e-01
 3.058817665529103280e-01
 3.023174845358522767e-01
 3.861396300694930339e-01
 3.817891561626192143e-01
 3.774386831476629900e-01
 3.730882110552494191e-01
 3.687377399174856518e-01
 4.552727648593415943e-01
 4.501386723675078749e-01
 4.450045808435992289e-01
 4.398704903206673844e-01
 4.347364008332825769e-01
 5.239262641340606264e-01
 5.180108384644472874e-01
 5.120954137967826947e-01
 5.061799901651194977e-01
 5.002645676048826928e-01
 5.920562531261023276e-01
 5.853614134845332995e-01
 5.786665748331601966e-01
 5.719717372053229054e-01
 5.652769006359085191e-01
 6.596472315924154506e-01
 6.521738431070999154e-01
 6.447004555349733490e-01
 6.372270689065013816e-01
 6.297536832535656215e-01
 7.266968923852579199e-01
 7.184444290228468866e-01
 7.101919664366785900e-01
 7.019395046526160087e-01
 6.936870436974166276e-01
 7.931986273594207049e-01
 7.841653154801599968e-01
 7.751320041740820121e-01
 7.660986934600397813e-01
 7.570653833577072334e-01
 8.591558264799303846e-01
 8.493384141244821883e-01
 8.395210020692623898e-01
 8.297035903240679300e-01
 8.198861788990465804e-01
 9.245820232633410463e-01
 9.139755511110088104e-01
 9.033690789092219120e-01
 8.927626066563196794e-01
 8.821561343506121311e-01
 9.894996842321966968e-01
 9.780972861077169567e-01
 9.666948875048647638e-01
 9.552924884082426571e-01
 9.438900888019120528e-01
 1.053935332969508920e+00
 1.041728163748542713e+00
 1.029520993539518647e+00
 1.017313822311183058e+00
 1.005106650030646254e+00
 1.117919331093324642e+00
 1.104896502396978342e+00
 1.091873672120927674e+00
 1.078850840215173967e+00
 1.065828006627787650e+00
 1.181485110100029434e+00
 1.167633646879797649e+00
 1.153782181405776708e+00
 1.139930713607280710e+00
 1.126079243410787134e+00
 1.244667583898403374e+00
 1.229972423330309095e+00
 1.215277259753269057e+00
 1.200582093073701007e+00
 1.185886923193933740e+00
 1.307503110770685595e+00
 1.291947104187321393e+00
 1.276391093759550843e+00
 1.260835079368457290e+00
 1.245279060890053247e+00
 1.370028813867748330e+00
 1.353592747248143935e+00
 1.337156675870943889e+00
 1.320720599589759736e+00
 1.304284518252031067e+00
 1.432281308156494459e+00
 1.414943956836854033e+00
 1.397606599772127867e+00
 1.380269236786294318e+00
 1.362931867696029142e+00
 1.494296891058791488e+00
 1.476035071369951934e+00
 1.457773244877229812e+00
 1.439511411372869754e+00
 1.421249570640670923e+00
 1.556110012430293565e+00
 1.536898673203509480e+00
 1.517687326049369290e+00
 1.498475970726653506e+00
 1.479264606984178831e+00
 1.617752980863060186e+00
 1.597565304600092828e+00
 1.577377619226163930e+00
 1.557189924464489783e+00
 1.537002220027017474e+00
 1.679255807327678429e+00
 1.658063316142324384e+00
 1.636870814609829861e+00
 1.615678302416273748e+00
 1.594485779234867229e+00
 1.740644389725170660e+00
 1.718417098936354970e+00
 1.696189796520372495e+00
 1.673962482124588202e+00
 1.651735155382020537e+00
 1.801947794221317345e+00
 1.778654184040559638e+00
 1.755360560902147427e+00
 1.732066924412959175e+00
 1.708773274163719602e+00
 1.863202079088090102e+00
 1.838808968858404613e+00
 1.814415844290688806e+00
 1.790022704949327359e+00
 1.765629550380739543e+00
 1.924437783798673474e+00
 1.898910523549233398e+00
 1.873383247551915209e+00
 1.847855955327155408e+00
 1.822328646375685146e+00
 1.985675572038629211e+00
 1.958978347474703563e+00
 1.932281105734764415e+00
 1.905583846294206518e+00
 1.878886568606615182e+00
 2.046932611836798532e+00
 2.019028588270735725e+00
 1.991124546089639180e+00
 1.963220484722496995e+00
 1.935316403574830701e+00
 2.108230496980249669e+00
 2.079081764016780909e+00
 2.049933010981678905e+00
 2.020784237256440186e+00
 1.991635442196854067e+00
 2.169587762014874244e+00
 2.139155466267705474e+00
 2.108723148999846142e+00
 2.078290809544370621e+00
 2.047858447206613253e+00
 2.231029944203228865e+00
 2.199274172157616558e+00
 2.167518377120491557e+00
 2.135762558374889597e+00
 2.104006715173663444e+00
 2.292565152364494097e+00
 2.259445424884289455e+00
 2.226325673002782057e+00
 2.193205895953701301e+00
 2.160086092938262592e+00
 2.354231215151608936e+00
 2.319705803184033854e+00
 2.285180365326490826e+00
 2.250654900759593069e+00
 2.216129408628983111e+00
 2.415998655318466248e+00
 2.380026325149814603e+00
 2.344053967838028996e+00
 2.308081582516746444e+00
 2.272109168282397285e+00
 2.477958668290886735e+00
 2.440495720018804438e+00
 2.403032742996599413e+00
 2.365569736298295922e+00
 2.328106698957693066e+00
 2.539797549358864703e+00
 2.500808050960521722e+00
 2.461818523427181216e+00
 2.422828965811373525e+00
 2.383839377124082226e+00
 </DataArray>
 <DataArray Name="pos.z" type="Float32" NumberOfComponents="1" format="ascii">
 0.000000000000000000e+00
 0.000000000000000000e+00
 0.000000000000000000e+00
 0.000000000000000000e+00
 0.000000000000000000e+00
 0.000000000000000000e+00
 0.000000000000000000e+00
 0.000000000000000000e+00
 0.000000000000000000e+00
 0.000000000000000000e+00
 0.000000000000000000e+00
 0.000000000000000000e+00
 0.000000000000000000e+00
 0.000000000000000000e+00
 0.000000000000000000e+00
 0.000000000000000000e+00
 0.000000000000000000e+00
 0.000000000000000000e+00
 0.000000000000000000e+00
 0.000000000000000000e+00
 0.000000000000000000e+00
 0.000000000000000000e+00
 0.000000000000000000e+00
 0.000000000000000000e+00
 0.000000000000000000e+00
 0.000000000000000000e+00
 0.000000000000000000e+00
 0.000000000000000000e+00
 0.000000000000000000e+00
 0.000000000000000000e+00
 0.000000000000000000e+00
 0.000000000000000000e+00
 0.000000000000000000e+00
 0.000000000000000000e+00
 0.000000000000000000e+00
 0.000000000000000000e+00
 0.000000000000000000e+00
 0.000000000000000000e+00
 0.000000000000000000e+00
 0.000000000000000000e+00
 0.000000000000000000e+00
 0.000000000000000000e+00
 0.000000000000000000e+00
 0.000000000000000000e+00
 0.000000000000000000e+00
 0.000000000000000000e+00
 0.000000000000000000e+00
 0.000000000000000000e+00
 0.000000000000000000e+00
 0.000000000000000000e+00
 0.000000000000000000e+00
 0.000000000000000000e+00
 0.000000000000000000e+00
 0.000000000000000000e+00
 0.000000000000000000e+00
 0.000000000000000000e+00
 0.000000000000000000e+00
 0.000000000000000000e+00
 0.000000000000000000e+00
 0.000000000000000000e+00
 0.000000000000000000e+00
 0.000000000000000000e+00
 0.000000000000000000e+00
 0.000000000000000000e+00
 0.000000000000000000e+00
 0.000000000000000000e+00
 0.000000000000000000e+00
 0.000000000000000000e+00
 0.000000000000000000e+00
 0.000000000000000000e+00
 0.000000000000000000e+00
 0.000000000000000000e+00
 0.000000000000000000e+00
 0.000000000000000000e+00
 0.000000000000000000e+00
 0.000000000000000000e+00
 0.000000000000000000e+00
 0.000000000000000000e+00
 0.000000000000000000e+00
 0.000000000000000000e+00
 0.000000000000000000e+00
 0.000000000000000000e+00
 0.000000000000000000e+00
 0.000000000000000000e+00
 0.000000000000000000e+00
 0.000000000000000000e+00
 0.000000000000000000e+00
 0.000000000000000000e+00
 0.000000000000000000e+00
 0.000000000000000000e+00
 0.000000000000000000e+00
 0.000000000000000000e+00
 0.000000000000000000e+00
 0.000000000000000000e+00
 0.000000000000000000e+00
 0.000000000000000000e+00
 0.000000000000000000e+00
 0.000000000000000000e+00
 0.000000000000000000e+00
 0.000000000000000000e+00
 0.000000000000000000e+00
 0.000000000000000000e+00
 0.000000000000000000e+00
 0.000000000000000000e+00
 0.000000000000000000e+00
 0.000000000000000000e+00
 0.000000000000000000e+00
 0.000000000000000000e+00
 0.000000000000000000e+00
 0.000000000000000000e+00
 0.000000000000000000e+00
 0.000000000000000000e+00
 0.000000000000000000e+00
 0.000000000000000000e+00
 0.000000000000000000e+00
 0.000000000000000000e+00
 0.000000000000000000e+00
 0.000000000000000000e+00
 0.000000000000000000e+00
 0.000000000000000000e+00
 0.000000000000000000e+00
 0.000000000000000000e+00
 0.000000000000000000e+00
 0.000000000000000000e+00
 0.000000000000000000e+00
 0.000000000000000000e+00
 0.000000000000000000e+00
 0.000000000000000000e+00
 0.000000000000000000e+00
 0.000000000000000000e+00
 0.000000000000000000e+00
 0.000000000000000000e+00
 0.000000000000000000e+00
 0.000000000000000000e+00
 0.000000000000000000e+00
 0.000000000000000000e+00
 0.000000000000000000e+00
 0.000000000000000000e+00
 0.000000000000000000e+00
 0.000000000000000000e+00
 0.000000000000000000e+00
 0.000000000000000000e+00
 0.000000000000000000e+00
 0.000000000000000000e+00
 0.000000000000000000e+00
 0.000000000000000000e+00
 0.000000000000000000e+00
 0.000000000000000000e+00
 0.000000000000000000e+00
 0.000000000000000000e+00
 0.000000000000000000e+00
 0.000000000000000000e+00
 0.000000000000000000e+00
 0.000000000000000000e+00
 0.000000000000000000e+00
 0.000000000000000000e+00
 0.000000000000000000e+00
 0.000000000000000000e+00
 0.000000000000000000e+00
 0.000000000000000000e+00
 0.000000000000000000e+00
 0.000000000000000000e+00
 0.000000000000000000e+00
 0.000000000000000000e+00
 0.000000000000000000e+00
 0.000000000000000000e+00
 0.000000000000000000e+00
 0.000000000000000000e+00
 0.000000000000000000e+00
 0.000000000000000000e+00
 0.000000000000000000e+00
 0.000000000000000000e+00
 0.000000000000000000e+00
 0.000000000000000000e+00
 0.000000000000000000e+00
 0.000000000000000000e+00
 0.000000000000000000e+00
 0.000000000000000000e+00
 0.000000000000000000e+00
 0.000000000000000000e+00
 0.000000000000000000e+00
 0.000000000000000000e+00
 0.000000000000000000e+00
 0.000000000000000000e+00
 0.000000000000000000e+00
 0.000000000000000000e+00
 0.000000000000000000e+00
 0.000000000000000000e+00
 0.000000000000000000e+00
 0.000000000000000000e+00
 0.000000000000000000e+00
 0.000000000000000000e+00
 0.000000000000000000e+00
 0.000000000000000000e+00
 0.000000000000000000e+00
 0.000000000000000000e+00
 0.000000000000000000e+00
 0.000000000000000000e+00
 0.000000000000000000e+00
 0.000000000000000000e+00
 </DataArray>
 <DataArray Name="volume" type="Float32" NumberOfComponents="1" format="ascii">
 7.857585229111285763e-04
 7.769224537098190497e-04
 7.680863845103413912e-04
 7.592503153097118762e-04
 7.504142461101370731e-04
 7.870188139242105876e-04
 7.781782326367232827e-04
 7.693376513517088261e-04
 7.604970700652124820e-04
 7.516564887797728012e-04
 7.896192240307588726e-04
 7.807683266195289927e-04
 7.719174292087184822e-04
 7.630665317986504333e-04
 7.542156343876621136e-04
 7.935217832382552260e-04
 7.846552618824887727e-04
 7.757887405253297702e-04
 7.669222191694544631e-04
 7.580556978129420788e-04
 7.987996552115961268e-04
 7.899109300557247137e-04
 7.810222048980882195e-04
 7.721334797415341927e-04
 7.632447545852958856e-04
 8.055103604825853553e-04
 7.965917931946229699e-04
 7.876732259057541916e-04
 7.787546586171742447e-04
 7.698360913291199190e-04
 8.137273119165674279e-04
 8.047699411765822999e-04
 7.958125704372234072e-04
 7.868551996974473134e-04
 7.778978289581447991e-04
 8.235291750636900346e-04
 8.145226257500609579e-04
 8.055160764381362470e-04
 7.965095271261074528e-04
 7.875029778131505814e-04
 8.349633397587551825e-04
 8.258962980757390132e-04
 8.168292563931617289e-04
 8.077622147108845518e-04
 7.986951730276775629e-04
 8.481575378249239100e-04
 8.390165359205645906e-04
 8.298755340146683063e-04
 8.207345321092074375e-04
 8.115935302044213762e-04
 8.632499954825748056e-04
 8.540192741659253378e-04
 8.447885528476278827e-04
 8.355578315302376879e-04
 8.263271102131961726e-04
 8.803133235293254810e-04
 8.709758494399259116e-04
 8.616383753488089658e-04
 8.523009012588889793e-04
 8.429634271686897024e-04
 8.994340976042399655e-04
 8.899713664836488014e-04
 8.805086353612361777e-04
 8.710459042392676432e-04
 8.615831731176391145e-04
 9.207114409342069539e-04
 9.111033064517562452e-04
 9.014951719681120468e-04
 8.918870374845008081e-04
 8.822789030014654976e-04
 9.442552818538663822e-04
 9.344798098360734134e-04
 9.247043378183827933e-04
 9.149288658003382896e-04
 9.051533937828662446e-04
 9.701733238705965295e-04
 9.602068358145650351e-04
 9.502403477579645513e-04
 9.402738597029634826e-04
 9.303073716470742355e-04
 9.985745522208822056e-04
 9.883916090357245526e-04
 9.782086658498487242e-04
 9.680257226661291570e-04
 9.578427794801301631e-04
 1.029570436828813190e-03
 1.019143795982408590e-03
 1.008717155138633831e-03
 9.982905142931954717e-04
 9.878638734471586330e-04
 1.063273264534838475e-03
 1.052573851683894640e-03
 1.041874438835851263e-03
 1.031175025985920507e-03
 1.020475613135648010e-03
 1.099798284684785216e-03
 1.088795123666087827e-03
 1.077791962648847607e-03
 1.066788801631701061e-03
 1.055785640613829401e-03
 1.139263858197712281e-03
 1.127923987622032193e-03
 1.116584117046275776e-03
 1.105244246471081410e-03
 1.093904375895599079e-03
 1.181789643325603656e-03
 1.170078047789430142e-03
 1.158366452252576617e-03
 1.146654856716385756e-03
 1.134943261179913870e-03
 1.227498188413490149e-03
 1.215377695136781594e-03
 1.203257201859937731e-03
 1.191136708583114684e-03
 1.179016215306069593e-03
 1.276512261933492737e-03
 1.263943462997425132e-03
 1.251374664060930786e-03
 1.238805865124238681e-03
 1.226237066187543107e-03
 1.328954562745589957e-03
 1.315895730052602658e-03
 1.302836897358501667e-03
 1.289778064665007828e-03
 1.276719231971479296e-03
 1.384947939485993429e-03
 1.371354924186767021e-03
 1.357761908887155505e-03
 1.344168893587769503e-03
 1.330575878288685343e-03
 1.444611231331684870e-03
 1.430437411118954533e-03
 1.416263590905863373e-03
 1.402089770691838932e-03
 1.387915950479080840e-03
 1.508075362003376274e-03
 1.493271351782971684e-03
 1.478467341561977288e-03
 1.463663331340837176e-03
 1.448859321119936455e-03
 1.575492254099340045e-03
 1.560005477114028566e-03
 1.544518700127766458e-03
 1.529031923142094157e-03
 1.513545146156335119e-03
 1.647006394422962511e-03
 1.630781042363738803e-03